{
  "STATES": {
    "triple_liquid": {
      "rhomolar_units": "mol/m^3",
      "T": 134.895,
      "T_units": "K",
      "p": 0.6656582208078881,
      "rhomolar": 12645.062133275149,
      "hmolar": -5220.749887455389,
      "p_units": "Pa",
      "smolar_units": "J/mol/K",
      "hmolar_units": "J/mol",
      "smolar": -27.03333412405396
    },
    "critical": {
      "rhomolar_units": "mol/m^3",
      "T": 425.125,
      "T_units": "K",
      "p": 3796000,
      "rhomolar": 3920.0167920000004,
      "hmolar": 40331.42740266437,
      "p_units": "Pa",
      "smolar_units": "J/mol/K",
      "hmolar_units": "J/mol",
      "smolar": 137.34805198475811
    },
    "triple_vapor": {
      "rhomolar_units": "mol/m^3",
      "T": 134.895,
      "T_units": "K",
      "p": 0.6656582208078881,
      "rhomolar": 0.0005935027093652988,
      "hmolar": 23603.75338595084,
      "p_units": "Pa",
      "smolar_units": "J/mol/K",
      "hmolar_units": "J/mol",
      "smolar": 186.6477011654006
    }
  },
  "INFO": {
    "SMILES": "CCCC",
    "INCHI_KEY": "IJDNQMDRQITEOD-UHFFFAOYSA-N",
    "CHEMSPIDER_ID": 7555,
    "REFPROP_NAME": "BUTANE",
    "INCHI_STRING": "InChI=1S/C4H10/c1-3-4-2/h3-4H2,1-2H3",
    "CAS": "106-97-8",
    "2DPNG_URL": "http://www.chemspider.com/ImagesHandler.ashx?id=7555",
    "ENVIRONMENTAL": {
      "GWP20": -1,
      "ODP": -1,
      "GWP500": -1,
      "GWP100": 3,
      "HH": 1,
      "FH": 4,
      "PH": 0,
      "ASHRAE34": "A3",
      "Name": "n-Butane"
    },
    "NAME": "n-Butane",
    "FORMULA": "C_{4}H_{10}",
    "ALIASES": [
      "nButane",
      "butane",
      "Butane",
      "BUTANE",
      "N-BUTANE",
      "R600",
      "NC4H10",
      "n-C4H10"
    ]
  },
  "EOS": [
    {
      "p_max": 12000000,
      "molar_mass_units": "kg/mol",
      "STATES": {
        "hs_anchor": {
          "rhomolar_units": "mol/m^3",
          "T": 467.6375000000001,
          "T_units": "K",
          "p": 6.189994483731955e6,
          "rhomolar": 3530.492651689028,
          "hmolar": 47861.671413925265,
          "p_units": "Pa",
          "smolar_units": "J/mol/K",
          "hmolar_units": "J/mol",
          "smolar": 152.79309067928807
        },
        "reducing": {
          "rhomolar_units": "mol/m^3",
          "T": 425.125,
          "T_units": "K",
          "p": 3796000,
          "rhomolar": 3920.0167920000004,
          "hmolar": 40337.78928854941,
          "p_units": "Pa",
          "smolar_units": "J/mol/K",
          "hmolar_units": "J/mol",
          "smolar": 137.36140769025369
        },
        "sat_min_liquid": {
          "rhomolar_units": "mol/m^3",
          "T": 134.895,
          "T_units": "K",
          "p": 0.6656582208078881,
          "rhomolar": 12645.062133275149,
          "hmolar": -5220.749887455389,
          "p_units": "Pa",
          "smolar_units": "J/mol/K",
          "hmolar_units": "J/mol",
          "smolar": -27.03333412405396
        },
        "sat_min_vapor": {
          "rhomolar_units": "mol/m^3",
          "T": 134.895,
          "T_units": "K",
          "p": 0.6656582208078881,
          "rhomolar": 0.0005935027093652988,
          "hmolar": 23603.75338595084,
          "p_units": "Pa",
          "smolar_units": "J/mol/K",
          "hmolar_units": "J/mol",
          "smolar": 186.6477011654006
        }
      },
      "alphar": [
        {
          "l": [
            0,
            0,
            0,
            0,
            0,
            0,
            1,
            1,
            2,
            2,
            3,
            3
          ],
          "n": [
            1.0626277411455,
            -2.862095182835,
            0.88738233403777,
            -0.12570581155345,
            0.10286308708106,
            0.00025358040602654,
            0.32325200233982,
            -0.037950761057432,
            -0.32534802014452,
            -0.079050969051011,
            -0.020636720547775,
            0.005705380933475
          ],
          "d": [
            1,
            1,
            1,
            2,
            3,
            7,
            2,
            5,
            1,
            4,
            3,
            4
          ],
          "type": "ResidualHelmholtzPower",
          "t": [
            0.25,
            1.125,
            1.5,
            1.375,
            0.25,
            0.875,
            0.625,
            1.75,
            3.625,
            3.625,
            14.5,
            12.0
          ]
        }
      ],
      "gas_constant_units": "J/mol/K",
      "T_max": 575,
      "pseudo_pure": false,
      "molar_mass": 0.0581222,
      "Ttriple_units": "K",
      "T_max_units": "K",
      "acentric": 0.200810094644,
      "acentric_units": "-",
      "alpha0": [
        {
          "a2": -91.638478026,
          "type": "IdealGasHelmholtzLead",
          "a1": 20.884143364
        },
        {
          "a": 3.33944,
          "type": "IdealGasHelmholtzLogTau"
        },
        {
          "n": [
            9.44893,
            6.89406,
            24.4618,
            14.7824
          ],
          "type": "IdealGasClapeyronJLGerg2008",
          "v": [
            1.101487798,
            0.43195766,
            4.502440459,
            2.124516319
          ]
        },
        {
          "R0": 8.31451,
          "type": "IdealGasClapeyronJLR0",
          "R0_units": "J/mol/K"
        }
      ],
      "p_max_units": "Pa",
      "BibTeX_EOS": "Kunz-JCED-2012",
      "BibTeX_CP0": "Kunz-JCED-2012",
      "Ttriple": 134.895,
      "gas_constant": 8.314472,
      "rhomolar_max": 12856.656554040397,
      "rhomolar_max_units": "mol/m^3"
    }
  ],
  "ANCILLARIES": {
    "pS": {
      "Tmin": 134.895,
      "description": "p'' = pc*exp(Tc/T*sum(n_i*theta^t_i))",
      "Tmax": 425.124999999999,
      "n": [
        0.06986482880463143,
        -6.689091326409199,
        4.774874567188075,
        -5.7054710938841655,
        1.8437119133933968,
        -3.735372218319482
      ],
      "max_abserror_percentage": 0.02366371569104686,
      "t": [
        0.743,
        0.984,
        1.886,
        2.16,
        3.286,
        4.231
      ],
      "reducing_value": 3796000,
      "T_r": 425.125,
      "using_tau_r": true,
      "type": "pV"
    },
    "sL": {
      "A": [
        -394.4515813005811,
        3.745969942993724,
        -0.020681251182508388,
        8.035751584028468e-5,
        -2.049639395119591e-7,
        3.2043400294816624e-10,
        -2.78365383538841e-13,
        1.0119011053673632e-16
      ],
      "_note": "coefficients are in increasing order; input in K, output in J/mol/K; value is entropy minus hs_anchor entropy",
      "B": [
        1,
        -0.0023272332097512903
      ],
      "Tmin": 134.895,
      "Tmax": 425.025,
      "max_abs_error": 0.7814542951677019,
      "type": "rational_polynomial",
      "max_abs_error_units": "J/mol/K"
    },
    "hLV": {
      "A": [
        30831.114176364183,
        35.21196453815613,
        -2.2698131426900754,
        0.017557134029768152,
        -7.2617965034002e-5,
        1.7183052216652224e-7,
        -2.1979978720220383e-10,
        1.191139086554405e-13
      ],
      "_note": "coefficients are in increasing order; input in K, output in J/mol; value is enthalpy minus hs_anchor enthalpy",
      "B": [
        1,
        -0.0023263940766133978
      ],
      "Tmin": 134.895,
      "Tmax": 425.025,
      "max_abs_error": 731.0648141534498,
      "type": "rational_polynomial",
      "max_abs_error_units": "J/mol"
    },
    "sLV": {
      "A": [
        1077.4588425840732,
        -17.32986680462096,
        0.13927406559298747,
        -0.0006744621913564596,
        2.03732275998131e-6,
        -3.7624686405491725e-9,
        3.891129574032099e-12,
        -1.7257506057343995e-15
      ],
      "_note": "coefficients are in increasing order; input in K, output in J/mol/K; value is entropy minus hs_anchor entropy",
      "B": [
        1,
        -0.00230874122899586
      ],
      "Tmin": 134.895,
      "Tmax": 425.025,
      "max_abs_error": 2.253246071558979,
      "type": "rational_polynomial",
      "max_abs_error_units": "J/mol/K"
    },
    "melting_line": {
      "type": "polynomial_in_Tr",
      "parts": [
        {
          "a": [
            5.585582364e8
          ],
          "T_min": 134.895,
          "t": [
            2.206
          ],
          "T_0": 134.895,
          "T_max": 163.9,
          "p_0": 0.653
        }
      ],
      "BibTeX": "Buecker-JPCRD-2006B",
      "T_m": 135.23
    },
    "rhoV": {
      "Tmin": 134.895,
      "description": "rho'' = rhoc*exp(Tc/T*sum(n_i*theta^t_i))",
      "Tmax": 425.124999999999,
      "n": [
        -3.756767939636941,
        -2.819084986331516,
        2.3817493893256763,
        -27.835034497609627,
        409.9539445939933,
        -539.2138907428523
      ],
      "max_abserror_percentage": 1.1838723681035446,
      "t": [
        0.448,
        1.717,
        4.443,
        7.472,
        13.095,
        14.725
      ],
      "reducing_value": 3922.7696129878086,
      "T_r": 425.125,
      "using_tau_r": true,
      "type": "rhoV"
    },
    "surface_tension": {
      "a": [
        0.05138
      ],
      "n": [
        1.209
      ],
      "BibTeX": "Mulero-JPCRD-2012",
      "Tc": 425.125,
      "description": "sigma = sum(a_i*(1-T/Tc)^n_i)"
    },
    "hL": {
      "A": [
        -65886.25523881183,
        194.0272776001964,
        0.7619004200926986,
        -0.007239026631265293,
        2.975703600671248e-5,
        -7.012157792155186e-8,
        8.837545054249725e-11,
        -4.7077914022462224e-14
      ],
      "_note": "coefficients are in increasing order; input in K, output in J/mol; value is enthalpy minus hs_anchor enthalpy",
      "B": [
        1,
        -0.0023293064961178475
      ],
      "Tmin": 134.895,
      "Tmax": 425.025,
      "max_abs_error": 313.9350446757544,
      "type": "rational_polynomial",
      "max_abs_error_units": "J/mol"
    },
    "rhoL": {
      "Tmin": 134.895,
      "description": "rho' = rhoc*(1+sum(n_i*theta^t_i))",
      "Tmax": 425.124999999999,
      "n": [
        7.6544950329552,
        -16.928503641708495,
        14.1763275129393,
        -2.3511736019127136,
        5.431931351600508,
        -13.286388570143172
      ],
      "max_abserror_percentage": 0.21170510433432543,
      "t": [
        0.501,
        0.742,
        0.917,
        1.387,
        9.328,
        12.623
      ],
      "reducing_value": 3922.7696129878086,
      "T_r": 425.125,
      "using_tau_r": false,
      "type": "rhoLnoexp"
    }
  }
}