{
  "STATES": {
    "triple_liquid": {
      "rhomolar_units": "mol/m^3",
      "T": 68.16,
      "T_units": "K",
      "p": 15536.876656446811,
      "rhomolar": 30329.705964719185,
      "hmolar": -811.0642415436049,
      "p_units": "Pa",
      "smolar_units": "J/mol/K",
      "hmolar_units": "J/mol",
      "smolar": -10.8199766122029
    },
    "critical": {
      "rhomolar_units": "mol/m^3",
      "T": 132.86,
      "T_units": "K",
      "p": 3494000,
      "rhomolar": 10850,
      "hmolar": 4613.651211850602,
      "p_units": "Pa",
      "smolar_units": "J/mol/K",
      "hmolar_units": "J/mol",
      "smolar": 40.03876572250211
    },
    "triple_vapor": {
      "rhomolar_units": "mol/m^3",
      "T": 68.16,
      "T_units": "K",
      "p": 15536.876656446811,
      "rhomolar": 27.707486894692664,
      "hmolar": 5685.903572753587,
      "p_units": "Pa",
      "smolar_units": "J/mol/K",
      "hmolar_units": "J/mol",
      "smolar": 84.49937127741362
    }
  },
  "INFO": {
    "SMILES": "[C-]#[O+]",
    "INCHI_KEY": "UGFAIRIUMAVXCW-UHFFFAOYSA-N",
    "CHEMSPIDER_ID": 275,
    "REFPROP_NAME": "CO",
    "INCHI_STRING": "InChI=1S/CO/c1-2",
    "CAS": "630-08-0",
    "2DPNG_URL": "http://www.chemspider.com/ImagesHandler.ashx?id=275",
    "ENVIRONMENTAL": {
      "GWP20": -1,
      "ODP": -1,
      "GWP500": -1,
      "GWP100": -1,
      "HH": 1,
      "FH": 4,
      "PH": 3,
      "ASHRAE34": "UNKNOWN",
      "Name": "CarbonMonoxide"
    },
    "NAME": "CarbonMonoxide",
    "FORMULA": "C_{1}O_{1}",
    "ALIASES": [
      "CO",
      "CARBONMONOXIDE"
    ]
  },
  "EOS": [
    {
      "p_max": 100000000,
      "molar_mass_units": "kg/mol",
      "STATES": {
        "hs_anchor": {
          "rhomolar_units": "mol/m^3",
          "T": 146.14600000000002,
          "T_units": "K",
          "p": 5.421081433449208e6,
          "rhomolar": 9765,
          "hmolar": 5459.450106597755,
          "p_units": "Pa",
          "smolar_units": "J/mol/K",
          "hmolar_units": "J/mol",
          "smolar": 44.77665535684615
        },
        "reducing": {
          "rhomolar_units": "mol/m^3",
          "T": 132.86,
          "T_units": "K",
          "p": 3494000,
          "rhomolar": 10850,
          "hmolar": 4614.18864574839,
          "p_units": "Pa",
          "smolar_units": "J/mol/K",
          "hmolar_units": "J/mol",
          "smolar": 40.04131136875154
        },
        "sat_min_liquid": {
          "rhomolar_units": "mol/m^3",
          "T": 68.16,
          "T_units": "K",
          "p": 15536.876656446811,
          "rhomolar": 30329.705964719185,
          "hmolar": -811.0642415436049,
          "p_units": "Pa",
          "smolar_units": "J/mol/K",
          "hmolar_units": "J/mol",
          "smolar": -10.8199766122029
        },
        "sat_min_vapor": {
          "rhomolar_units": "mol/m^3",
          "T": 68.16,
          "T_units": "K",
          "p": 15536.876656446811,
          "rhomolar": 27.707486894692664,
          "hmolar": 5685.903572753587,
          "p_units": "Pa",
          "smolar_units": "J/mol/K",
          "hmolar_units": "J/mol",
          "smolar": 84.49937127741362
        }
      },
      "alphar": [
        {
          "l": [
            0,
            0,
            0,
            0,
            0,
            0,
            1,
            1,
            2,
            2,
            3,
            3
          ],
          "n": [
            0.90554,
            -2.4515,
            0.53149,
            0.024173,
            0.072156,
            0.00018818,
            0.19405,
            -0.043268,
            -0.12778,
            -0.027896,
            -0.034154,
            0.016329
          ],
          "d": [
            1,
            1,
            1,
            2,
            3,
            7,
            2,
            5,
            1,
            4,
            3,
            4
          ],
          "type": "ResidualHelmholtzPower",
          "t": [
            0.25,
            1.125,
            1.5,
            1.375,
            0.25,
            0.875,
            0.625,
            1.75,
            3.625,
            3.625,
            14.5,
            12.0
          ]
        }
      ],
      "gas_constant_units": "J/mol/K",
      "T_max": 500,
      "pseudo_pure": false,
      "molar_mass": 0.028010100000000003,
      "Ttriple_units": "K",
      "T_max_units": "K",
      "acentric": 0.0497,
      "acentric_units": "-",
      "alpha0": [
        {
          "a2": -19.834733959,
          "type": "IdealGasHelmholtzLead",
          "a1": 10.813340744
        },
        {
          "a": 2.50055,
          "type": "IdealGasHelmholtzLogTau"
        },
        {
          "n": [
            1.02865,
            0.00493,
            0.0,
            0.0
          ],
          "type": "IdealGasClapeyronJLGerg2008",
          "v": [
            11.6698028,
            5.302762306,
            0.0,
            0.0
          ]
        },
        {
          "R0": 8.31451,
          "type": "IdealGasClapeyronJLR0",
          "R0_units": "J/mol/K"
        }
      ],
      "p_max_units": "Pa",
      "BibTeX_EOS": "Kunz-JCED-2012",
      "BibTeX_CP0": "Kunz-JCED-2012",
      "Ttriple": 68.16,
      "gas_constant": 8.314472,
      "rhomolar_max": 34034.734593950256,
      "rhomolar_max_units": "mol/m^3"
    }
  ],
  "ANCILLARIES": {
    "pS": {
      "Tmin": 68.16000000000001,
      "description": "p'' = pc*exp(Tc/T*sum(n_i*theta^t_i))",
      "Tmax": 132.8599999999997,
      "n": [
        0.0031655594711161982,
        -5.386279334978247,
        -0.44089436177701297,
        1.5403401817486662,
        -5.692323589833758,
        3.03081959067228
      ],
      "max_abserror_percentage": 0.0655505132825307,
      "t": [
        0.052,
        0.968,
        1.972,
        2.761,
        4.199,
        5.126
      ],
      "reducing_value": 3494000,
      "T_r": 132.86,
      "using_tau_r": true,
      "type": "pV"
    },
    "sL": {
      "A": [
        -140.9263966100532,
        1.3730356062213105,
        0.06100639394182925,
        -0.0018955422339307672,
        2.5003786345845417e-5,
        -1.7930529836445676e-7,
        6.818755730829353e-10,
        -1.0829839564780558e-12
      ],
      "_note": "coefficients are in increasing order; input in K, output in J/mol/K; value is entropy minus hs_anchor entropy",
      "B": [
        1,
        -0.007467653290298748
      ],
      "Tmin": 68.16,
      "Tmax": 132.76000000000005,
      "max_abs_error": 0.25845162415965905,
      "type": "rational_polynomial",
      "max_abs_error_units": "J/mol/K"
    },
    "hLV": {
      "A": [
        -19828.05250511838,
        2121.052956936952,
        -73.10227743572827,
        1.3358140695090897,
        -0.014464384912142036,
        9.311392676350516e-5,
        -3.304823679910326e-7,
        5.002354104608063e-10
      ],
      "_note": "coefficients are in increasing order; input in K, output in J/mol; value is enthalpy minus hs_anchor enthalpy",
      "B": [
        1,
        -0.007460420950994464
      ],
      "Tmin": 68.16,
      "Tmax": 132.76000000000005,
      "max_abs_error": 75.64768476952054,
      "type": "rational_polynomial",
      "max_abs_error_units": "J/mol"
    },
    "sLV": {
      "A": [
        480.7392604921732,
        -14.18819043931929,
        0.1358107382568285,
        0.000698615978012527,
        -2.861360185282733e-5,
        2.759247866309237e-7,
        -1.2140068384836646e-9,
        2.1057828462155703e-12
      ],
      "_note": "coefficients are in increasing order; input in K, output in J/mol/K; value is entropy minus hs_anchor entropy",
      "B": [
        1,
        -0.007460865118418544
      ],
      "Tmin": 68.16,
      "Tmax": 132.76000000000005,
      "max_abs_error": 0.56728937109854,
      "type": "rational_polynomial",
      "max_abs_error_units": "J/mol/K"
    },
    "melting_line": {
      "type": "Simon",
      "parts": [
        {
          "a": 19560.8,
          "c": 2.10747,
          "T_min": 68.16,
          "T_0": 1,
          "T_max": 90,
          "p_0": -1.429214392e8
        }
      ],
      "BibTeX": "Barreiros-JCT-1982",
      "T_m": 68.3
    },
    "rhoV": {
      "Tmin": 68.16000000000001,
      "description": "rho'' = rhoc*exp(Tc/T*sum(n_i*theta^t_i))",
      "Tmax": 132.8599999999997,
      "n": [
        -3.6459289142239206,
        1.516796222856447,
        -114.10174052209382,
        292.7876490687851,
        -183.6056308954516,
        4746.634272544051
      ],
      "max_abserror_percentage": 0.253613973167921,
      "t": [
        0.444,
        0.75,
        1.847,
        2.04,
        2.169,
        19.966
      ],
      "reducing_value": 10850,
      "T_r": 132.86,
      "using_tau_r": true,
      "type": "rhoV"
    },
    "surface_tension": {
      "a": [
        0.02843
      ],
      "n": [
        1.148
      ],
      "BibTeX": "Mulero-JPCRD-2012",
      "Tc": 132.86,
      "description": "sigma = sum(a_i*(1-T/Tc)^n_i)"
    },
    "hL": {
      "A": [
        149.6588171983697,
        -698.2511811232864,
        27.564342454262334,
        -0.5138609105449393,
        0.005580199594996792,
        -3.5958537823803305e-5,
        1.277108268418656e-7,
        -1.9346626991132147e-10
      ],
      "_note": "coefficients are in increasing order; input in K, output in J/mol; value is enthalpy minus hs_anchor enthalpy",
      "B": [
        1,
        -0.007466697960288478
      ],
      "Tmin": 68.16,
      "Tmax": 132.76000000000005,
      "max_abs_error": 34.755684906402166,
      "type": "rational_polynomial",
      "max_abs_error_units": "J/mol"
    },
    "rhoL": {
      "Tmin": 68.16000000000001,
      "description": "rho' = rhoc*(1+sum(n_i*theta^t_i))",
      "Tmax": 132.8599999999997,
      "n": [
        3.973336124071812,
        -3.262687458485425,
        3.3499432070659303,
        -42.129174166388935,
        56.52859432308481,
        -110.70022756120696
      ],
      "max_abserror_percentage": 0.35662556345594787,
      "t": [
        0.44,
        0.672,
        1.334,
        3.874,
        4.413,
        9.257
      ],
      "reducing_value": 10850,
      "T_r": 132.86,
      "using_tau_r": false,
      "type": "rhoLnoexp"
    }
  }
}