{
  "STATES": {
    "triple_liquid": {
      "rhomolar_units": "mol/m^3",
      "T": 2.1768,
      "T_units": "K",
      "p": 5033.5488966581215,
      "rhomolar": 36477.06458310667,
      "hmolar": -27.30118274510245,
      "p_units": "Pa",
      "smolar_units": "J/mol/K",
      "hmolar_units": "J/mol",
      "smolar": -7.682590796849423
    },
    "critical": {
      "rhomolar_units": "mol/m^3",
      "T": 5.1953,
      "T_units": "K",
      "p": 227600,
      "rhomolar": 17399,
      "hmolar": 42.7834170604475,
      "p_units": "Pa",
      "smolar_units": "J/mol/K",
      "hmolar_units": "J/mol",
      "smolar": 7.807911622805713
    },
    "triple_vapor": {
      "rhomolar_units": "mol/m^3",
      "T": 2.1768,
      "T_units": "K",
      "p": 5033.548903276744,
      "rhomolar": 293.4422135982681,
      "hmolar": 63.73374369469532,
      "p_units": "Pa",
      "smolar_units": "J/mol/K",
      "hmolar_units": "J/mol",
      "smolar": 34.13793769322099
    }
  },
  "INFO": {
    "SMILES": "[He]",
    "INCHI_KEY": "SWQJXJOGLNCZEY-UHFFFAOYSA-N",
    "CHEMSPIDER_ID": 22423,
    "REFPROP_NAME": "HELIUM",
    "INCHI_STRING": "InChI=1S/He",
    "CAS": "7440-59-7",
    "2DPNG_URL": "http://www.chemspider.com/ImagesHandler.ashx?id=22423",
    "ENVIRONMENTAL": {
      "GWP20": -1,
      "ODP": -1,
      "GWP500": -1,
      "GWP100": -1,
      "HH": 0,
      "FH": 0,
      "PH": 0,
      "ASHRAE34": "A1",
      "Name": "Helium"
    },
    "NAME": "Helium",
    "FORMULA": "He_{1}",
    "ALIASES": [
      "helium",
      "HELIUM",
      "He",
      "R704"
    ]
  },
  "EOS": [
    {
      "p_max": 1000000000,
      "molar_mass_units": "kg/mol",
      "STATES": {
        "hs_anchor": {
          "rhomolar_units": "mol/m^3",
          "T": 5.71483,
          "T_units": "K",
          "p": 312462.0494419108,
          "rhomolar": 15645.330000000002,
          "hmolar": 65.53595731402356,
          "p_units": "Pa",
          "smolar_units": "J/mol/K",
          "hmolar_units": "J/mol",
          "smolar": 11.06544579067132
        },
        "reducing": {
          "rhomolar_units": "mol/m^3",
          "T": 5.1953,
          "T_units": "K",
          "p": 227600,
          "rhomolar": 17399,
          "hmolar": 44.96143305155364,
          "p_units": "Pa",
          "smolar_units": "J/mol/K",
          "hmolar_units": "J/mol",
          "smolar": 8.226135341288757
        },
        "sat_min_liquid": {
          "rhomolar_units": "mol/m^3",
          "T": 2.1768,
          "T_units": "K",
          "p": 5033.5488966581215,
          "rhomolar": 3648,
          "hmolar": -27.30118274510245,
          "p_units": "Pa",
          "smolar_units": "J/mol/K",
          "hmolar_units": "J/mol",
          "smolar": -7.682590796849423
        },
        "sat_min_vapor": {
          "rhomolar_units": "mol/m^3",
          "T": 2.1768,
          "T_units": "K",
          "p": 5033.548903276744,
          "rhomolar": 293.4422135982681,
          "hmolar": 63.73374369469532,
          "p_units": "Pa",
          "smolar_units": "J/mol/K",
          "hmolar_units": "J/mol",
          "smolar": 34.13793769322099
        }
      },
      "alphar": [
        {
          "l": [
            0,
            0,
            0,
            0,
            1,
            1,
            1,
            1,
            1,
            2,
            3,
            3
          ],
          "n": [
            -0.45579024006737,
            1.2516390754925,
            -1.5438231650621,
            0.020467489707221,
            -0.34476212380781,
            -0.020858459512787,
            0.016227414711778,
            -0.057471818200892,
            0.019462416430715,
            -0.03329568012302,
            -0.010863577372367,
            -0.022173365245954
          ],
          "d": [
            1,
            1,
            1,
            4,
            1,
            3,
            5,
            5,
            5,
            2,
            1,
            2
          ],
          "type": "ResidualHelmholtzPower",
          "t": [
            0,
            0.125,
            0.75,
            1,
            0.75,
            2.625,
            0.125,
            1.25,
            2,
            1,
            4.5,
            5
          ]
        }
      ],
      "gas_constant_units": "J/mol/K",
      "T_max": 2000,
      "pseudo_pure": false,
      "molar_mass": 0.004002602,
      "Ttriple_units": "K",
      "T_max_units": "K",
      "acentric": -0.3836,
      "acentric_units": "-",
      "alpha0": [
        {
          "a2": -143.470759602,
          "type": "IdealGasHelmholtzLead",
          "a1": 13.628409737
        },
        {
          "a": 1.5,
          "type": "IdealGasHelmholtzLogTau"
        },
        {
          "n": [
            0,
            0,
            0,
            0
          ],
          "type": "IdealGasClapeyronJLGerg2008",
          "v": [
            0,
            0,
            0,
            0
          ]
        },
        {
          "R0": 8.31451,
          "type": "IdealGasClapeyronJLR0",
          "R0_units": "J/mol/K"
        }
      ],
      "p_max_units": "Pa",
      "BibTeX_EOS": "Kunz-JCED-2012",
      "BibTeX_CP0": "Kunz-JCED-2012",
      "Ttriple": 2.1768,
      "gas_constant": 8.314472,
      "rhomolar_max": 78000.71786941613,
      "rhomolar_max_units": "mol/m^3"
    }
  ],
  "ANCILLARIES": {
    "pS": {
      "Tmin": 2.1768000000000103,
      "description": "p' = pc*exp(Tc/T*sum(n_i*theta^t_i))",
      "Tmax": 5.195299999999987,
      "n": [
        -2.5589967099484343,
        -2.1208869241528903,
        2.030481403594388,
        0.9702906562630098,
        -0.006217789170073319,
        -4.338734244510393
      ],
      "max_abserror_percentage": 0.009046990251626584,
      "t": [
        0.981,
        1.13,
        1.536,
        3.109,
        0.338,
        14.431
      ],
      "reducing_value": 227600,
      "T_r": 5.1953,
      "using_tau_r": true,
      "type": "pL"
    },
    "sL": {
      "A": [
        -220.8131248691263,
        378.8057408213095,
        -300.6658743046463,
        134.10599069572189,
        -35.77490151869218,
        5.696087809233486,
        -0.5010209688732105,
        0.01877441969672714
      ],
      "_note": "coefficients are in increasing order; input in K, output in J/mol/K; value is entropy minus hs_anchor entropy",
      "B": [
        1,
        -0.17148584790923033
      ],
      "Tmin": 2.1768,
      "Tmax": 5.095300000000001,
      "max_abs_error": 0.010951738429925584,
      "type": "rational_polynomial",
      "max_abs_error_units": "J/mol/K"
    },
    "hLV": {
      "A": [
        391.42745304588783,
        -608.9226199371099,
        479.9105524369045,
        -209.40676826071692,
        53.67742495871909,
        -8.13872811627642,
        0.675678951250058,
        -0.023526779936415387
      ],
      "_note": "coefficients are in increasing order; input in K, output in J/mol; value is enthalpy minus hs_anchor enthalpy",
      "B": [
        1,
        -0.1875080509893607
      ],
      "Tmin": 2.1768,
      "Tmax": 5.095300000000001,
      "max_abs_error": 0.027340054461348014,
      "type": "rational_polynomial",
      "max_abs_error_units": "J/mol"
    },
    "sLV": {
      "A": [
        351.4673422570706,
        -537.9883078511539,
        400.1556615096195,
        -171.84826691782365,
        44.66916510354058,
        -6.969823967651703,
        0.602485721267827,
        -0.022206726554048692
      ],
      "_note": "coefficients are in increasing order; input in K, output in J/mol/K; value is entropy minus hs_anchor entropy",
      "B": [
        1,
        -0.1825709704051924
      ],
      "Tmin": 2.1768,
      "Tmax": 5.095300000000001,
      "max_abs_error": 0.014637324731948452,
      "type": "rational_polynomial",
      "max_abs_error_units": "J/mol/K"
    },
    "melting_line": {
      "type": "Simon",
      "parts": [
        {
          "a": 1606700,
          "c": 1.565,
          "T_min": 2.1768,
          "T_0": 1,
          "T_max": 700,
          "p_0": -1606700
        }
      ],
      "BibTeX": "Datchi-PRB-2000",
      "T_m": 1.15
    },
    "rhoV": {
      "Tmin": 2.1768000000000103,
      "description": "rho'' = rhoc*exp(Tc/T*sum(n_i*theta^t_i))",
      "Tmax": 5.195299999999987,
      "n": [
        -0.8412289332631507,
        -3.590072534944493,
        2.278876053655478,
        -1.4459129841887175,
        2.06386327167933,
        -14.547720153618606
      ],
      "max_abserror_percentage": 0.0694378509351723,
      "t": [
        0.211,
        0.693,
        0.749,
        1.118,
        1.846,
        19.915
      ],
      "reducing_value": 18130,
      "T_r": 5.1953,
      "using_tau_r": true,
      "type": "rhoV"
    },
    "surface_tension": {
      "a": [
        0.0004656,
        0.001889,
        -0.002006
      ],
      "n": [
        1.04,
        2.468,
        2.661
      ],
      "BibTeX": "Mulero-JPCRD-2012",
      "Tc": 5.1953,
      "description": "sigma = sum(a_i*(1-T/Tc)^n_i)"
    },
    "hL": {
      "A": [
        -454.5440676637413,
        682.1596693458837,
        -525.1442089601584,
        230.63429100636912,
        -60.4100341753017,
        9.42524086831093,
        -0.8111037501492061,
        0.02964181530820595
      ],
      "_note": "coefficients are in increasing order; input in K, output in J/mol; value is enthalpy minus hs_anchor enthalpy",
      "B": [
        1,
        -0.18430370276030952
      ],
      "Tmin": 2.1768,
      "Tmax": 5.095300000000001,
      "max_abs_error": 0.022431517849000215,
      "type": "rational_polynomial",
      "max_abs_error_units": "J/mol"
    },
    "rhoL": {
      "Tmin": 2.1768000000000103,
      "description": "rho' = rhoc*(1+sum(n_i*theta^t_i))",
      "Tmax": 5.195299999999987,
      "n": [
        1.822576721991628,
        -0.5212838519553242,
        0.2130685389843537,
        -0.4486122458610643,
        5.329845315529739,
        -10.020970811883176
      ],
      "max_abserror_percentage": 0.01468301830127583,
      "t": [
        0.402,
        0.491,
        0.941,
        1.784,
        8.213,
        9.042
      ],
      "reducing_value": 18130,
      "T_r": 5.1953,
      "using_tau_r": false,
      "type": "rhoLnoexp"
    }
  }
}