{
  "STATES": {
    "triple_liquid": {
      "rhomolar_units": "mol/m^3",
      "T": 177.83,
      "T_units": "K",
      "p": 1.18897906962797,
      "rhomolar": 8801.554295434455,
      "hmolar": -30535.13547951443,
      "p_units": "Pa",
      "smolar_units": "J/mol/K",
      "hmolar_units": "J/mol",
      "smolar": -120.09120604410413
    },
    "critical": {
      "rhomolar_units": "mol/m^3",
      "T": 507.82,
      "T_units": "K",
      "p": 3.044115328359688e6,
      "rhomolar": 2705.877875,
      "hmolar": 47136.8324687349,
      "p_units": "Pa",
      "smolar_units": "J/mol/K",
      "hmolar_units": "J/mol",
      "smolar": 108.16200205359628
    },
    "triple_vapor": {
      "rhomolar_units": "mol/m^3",
      "T": 177.83,
      "T_units": "K",
      "p": 1.18897906962797,
      "rhomolar": 0.0008041501643579273,
      "hmolar": 8039.074385755907,
      "p_units": "Pa",
      "smolar_units": "J/mol/K",
      "hmolar_units": "J/mol",
      "smolar": 96.82500531095654
    }
  },
  "INFO": {
    "SMILES": "CCCCCC",
    "INCHI_KEY": "VLKZOEOYAKHREP-UHFFFAOYSA-N",
    "CHEMSPIDER_ID": 7767,
    "REFPROP_NAME": "HEXANE",
    "INCHI_STRING": "InChI=1S/C6H14/c1-3-5-6-4-2/h3-6H2,1-2H3",
    "CAS": "110-54-3",
    "2DPNG_URL": "http://www.chemspider.com/ImagesHandler.ashx?id=7767",
    "ENVIRONMENTAL": {
      "GWP20": -1,
      "ODP": -1,
      "GWP500": -1,
      "GWP100": 3.1,
      "HH": 2,
      "FH": 3,
      "PH": 0,
      "ASHRAE34": "UNKNOWN",
      "Name": "n-Hexane"
    },
    "NAME": "n-Hexane",
    "FORMULA": "C_{6}H_{14}",
    "ALIASES": [
      "nHexane",
      "Hexane",
      "HEXANE",
      "N-HEXANE",
      "NC6H14",
      "n-C6H14"
    ]
  },
  "EOS": [
    {
      "p_max": 92000000,
      "molar_mass_units": "kg/mol",
      "STATES": {
        "hs_anchor": {
          "rhomolar_units": "mol/m^3",
          "T": 558.6020000000001,
          "T_units": "K",
          "p": 5.12033966818283e6,
          "rhomolar": 2435.4,
          "hmolar": 61207.98894261457,
          "p_units": "Pa",
          "smolar_units": "J/mol/K",
          "hmolar_units": "J/mol",
          "smolar": 133.0599119245496
        },
        "reducing": {
          "rhomolar_units": "mol/m^3",
          "T": 507.82,
          "T_units": "K",
          "p": 3.044115328359688e6,
          "rhomolar": 2705.877875,
          "hmolar": 47136.8324687349,
          "p_units": "Pa",
          "smolar_units": "J/mol/K",
          "hmolar_units": "J/mol",
          "smolar": 108.16200205359628
        },
        "sat_min_liquid": {
          "rhomolar_units": "mol/m^3",
          "T": 177.83,
          "T_units": "K",
          "p": 1.18897906962797,
          "rhomolar": 8801.554295434455,
          "hmolar": -30535.13547951443,
          "p_units": "Pa",
          "smolar_units": "J/mol/K",
          "hmolar_units": "J/mol",
          "smolar": -120.09120604410413
        },
        "sat_min_vapor": {
          "rhomolar_units": "mol/m^3",
          "T": 177.83,
          "T_units": "K",
          "p": 1.18897906962797,
          "rhomolar": 0.0008041501643579273,
          "hmolar": 8039.074385755907,
          "p_units": "Pa",
          "smolar_units": "J/mol/K",
          "hmolar_units": "J/mol",
          "smolar": 96.82500531095654
        }
      },
      "alphar": [
        {
          "l": [
            0,
            0,
            0,
            0,
            0,
            0,
            1,
            1,
            2,
            2,
            3,
            3
          ],
          "n": [
            1.0553238013661,
            -2.6120615890629,
            0.7661388296726,
            -0.29770320622459,
            0.11879907733358,
            0.00027922861062617,
            0.46347589844105,
            0.011433196980297,
            -0.48256968738131,
            -0.093750558924659,
            -0.0067273247155994,
            -0.0051141583585428
          ],
          "d": [
            1,
            1,
            1,
            2,
            3,
            7,
            2,
            5,
            1,
            4,
            3,
            4
          ],
          "type": "ResidualHelmholtzPower",
          "t": [
            0.25,
            1.125,
            1.5,
            1.375,
            0.25,
            0.875,
            0.625,
            1.75,
            3.625,
            3.625,
            14.5,
            12.0
          ]
        }
      ],
      "gas_constant_units": "J/mol/K",
      "T_max": 600,
      "pseudo_pure": false,
      "molar_mass": 0.08617535999999999,
      "Ttriple_units": "K",
      "T_max_units": "K",
      "acentric": 0.3003189315498438,
      "acentric_units": "-",
      "alpha0": [
        {
          "a2": -96.165722367,
          "type": "IdealGasHelmholtzLead",
          "a1": 14.345969349
        },
        {
          "a": 3,
          "type": "IdealGasHelmholtzLogTau"
        },
        {
          "n": [
            11.6977,
            26.8142,
            38.6164,
            0.0
          ],
          "type": "IdealGasClapeyronJLGerg2008",
          "v": [
            0.359036667,
            1.691951873,
            3.596924107,
            0.0
          ]
        },
        {
          "R0": 8.31451,
          "type": "IdealGasClapeyronJLR0",
          "R0_units": "J/mol/K"
        }
      ],
      "p_max_units": "Pa",
      "BibTeX_EOS": "Kunz-JCED-2012",
      "BibTeX_CP0": "Kunz-JCED-2012",
      "Ttriple": 177.83,
      "gas_constant": 8.314472,
      "rhomolar_max": 9305.055501565112,
      "rhomolar_max_units": "mol/m^3"
    }
  ],
  "ANCILLARIES": {
    "pS": {
      "Tmin": 177.83,
      "description": "p' = pc*exp(Tc/T*sum(n_i*theta^t_i))",
      "Tmax": 507.82,
      "n": [
        -7.654,
        2.7644,
        -2.285,
        -3.719,
        -1.646
      ],
      "max_abserror_percentage": 0.286473563774603,
      "t": [
        1,
        1.5,
        1.9,
        4.08,
        15.45
      ],
      "reducing_value": 3044100,
      "T_r": 507.82,
      "using_tau_r": true,
      "type": "pL"
    },
    "hLV": {
      "A": [
        34004.30172003677,
        219.25652175504783,
        -3.845546308539395,
        0.022490163673240176,
        -7.365586160686657e-5,
        1.401825336684708e-7,
        -1.4520950834316718e-10,
        6.379357156122549e-14
      ],
      "_note": "coefficients are in increasing order; input in K, output in J/mol; value is enthalpy minus hs_anchor enthalpy",
      "B": [
        1,
        -0.001948495900608012
      ],
      "Tmin": 177.83,
      "Tmax": 507.72,
      "max_abs_error": 627.5395677043261,
      "type": "rational_polynomial",
      "max_abs_error_units": "J/mol"
    },
    "sLV": {
      "A": [
        1137.9177641890617,
        -14.499189458054836,
        0.09182511733662452,
        -0.0003506521578794153,
        8.360760135305252e-7,
        -1.2194502719255651e-9,
        9.960072773880886e-13,
        -3.484344371702608e-16
      ],
      "_note": "coefficients are in increasing order; input in K, output in J/mol/K; value is entropy minus hs_anchor entropy",
      "B": [
        1,
        -0.0019427750132305357
      ],
      "Tmin": 177.83,
      "Tmax": 507.72,
      "max_abs_error": 1.5303408398691487,
      "type": "rational_polynomial",
      "max_abs_error_units": "J/mol/K"
    },
    "rhoL": {
      "Tmin": 177.83,
      "description": "rho' = rhoc*(1+sum(n_i*theta^t_i))",
      "Tmax": 507.82,
      "n": [
        2.302,
        0.3493,
        0.9563,
        -1.543,
        1.0452
      ],
      "max_abserror_percentage": 0.9024344840601106,
      "t": [
        0.373,
        1.068,
        3.993,
        5.36,
        6.87
      ],
      "reducing_value": 2706,
      "T_r": 507.82,
      "using_tau_r": false,
      "type": "rhoLnoexp"
    },
    "rhoV": {
      "Tmin": 177.83,
      "description": "rho'' = rhoc*exp(Tc/T*sum(n_i*theta^t_i))",
      "Tmax": 507.82,
      "n": [
        -3.4056,
        -7.5474,
        -22.828,
        -57.063,
        -125.0,
        -265.5
      ],
      "max_abserror_percentage": 1.0104195769602642,
      "t": [
        0.419,
        1.355,
        3.473,
        7.1,
        15.0,
        30.0
      ],
      "reducing_value": 2706,
      "T_r": 507.82,
      "using_tau_r": true,
      "type": "rhoV"
    },
    "surface_tension": {
      "a": [
        0.210952,
        -0.158485
      ],
      "n": [
        1.0962,
        1.05893
      ],
      "BibTeX": "Mulero-JPCRD-2012",
      "Tc": 507.82,
      "description": "sigma = sum(a_i*(1-T/Tc)^n_i)"
    },
    "hL": {
      "A": [
        -109549.16319775015,
        178.49887699475113,
        1.7337784147884965,
        -0.011020081436100662,
        3.5876260168349e-5,
        -6.834220225485004e-8,
        6.988896742647394e-11,
        -3.0035522883888663e-14
      ],
      "_note": "coefficients are in increasing order; input in K, output in J/mol; value is enthalpy minus hs_anchor enthalpy",
      "B": [
        1,
        -0.001955726689269152
      ],
      "Tmin": 177.83,
      "Tmax": 507.72,
      "max_abs_error": 140.81089039614017,
      "type": "rational_polynomial",
      "max_abs_error_units": "J/mol"
    },
    "sL": {
      "A": [
        -528.2978455025191,
        3.6593435030013266,
        -0.013969735074159375,
        3.695736566875028e-5,
        -5.949522984073347e-8,
        4.5909379106299206e-11,
        -3.8189768539620335e-15,
        -1.0999724953164165e-17
      ],
      "_note": "coefficients are in increasing order; input in K, output in J/mol/K; value is entropy minus hs_anchor entropy",
      "B": [
        1,
        -0.001955915778062047
      ],
      "Tmin": 177.83,
      "Tmax": 507.72,
      "max_abs_error": 0.2693707108989116,
      "type": "rational_polynomial",
      "max_abs_error_units": "J/mol/K"
    }
  }
}