{
  "STATES": {
    "triple_liquid": {
      "rhomolar_units": "mol/m^3",
      "T": 85.525,
      "T_units": "K",
      "p": 0.00017184840809308612,
      "rhomolar": 16625.805559650213,
      "hmolar": -8671.12468936134,
      "p_units": "Pa",
      "smolar_units": "J/mol/K",
      "hmolar_units": "J/mol",
      "smolar": -61.55368255049795
    },
    "critical": {
      "rhomolar_units": "mol/m^3",
      "T": 369.825,
      "T_units": "K",
      "p": 4251200,
      "rhomolar": 5000.043088,
      "hmolar": 24483.449925262434,
      "p_units": "Pa",
      "smolar_units": "J/mol/K",
      "hmolar_units": "J/mol",
      "smolar": 90.46769877967496
    },
    "triple_vapor": {
      "rhomolar_units": "mol/m^3",
      "T": 85.525,
      "T_units": "K",
      "p": 0.00017184840809308612,
      "rhomolar": 2.419453505696157e-7,
      "hmolar": 16150.334927009257,
      "p_units": "Pa",
      "smolar_units": "J/mol/K",
      "hmolar_units": "J/mol",
      "smolar": 228.67092565026863
    }
  },
  "INFO": {
    "SMILES": "CCC",
    "INCHI_KEY": "ATUOYWHBWRKTHZ-UHFFFAOYSA-N",
    "CHEMSPIDER_ID": 6094,
    "REFPROP_NAME": "PROPANE",
    "INCHI_STRING": "InChI=1S/C3H8/c1-3-2/h3H2,1-2H3",
    "CAS": "74-98-6",
    "2DPNG_URL": "http://www.chemspider.com/ImagesHandler.ashx?id=6094",
    "ENVIRONMENTAL": {
      "GWP20": -1,
      "ODP": -1,
      "GWP500": -1,
      "GWP100": 3,
      "HH": 1,
      "FH": 4,
      "PH": 0,
      "ASHRAE34": "A3",
      "Name": "n-Propane"
    },
    "NAME": "n-Propane",
    "FORMULA": "C_{3}H_{8}",
    "ALIASES": [
      "Propane",
      "propane",
      "R290",
      "C3H8",
      "PROPANE",
      "N-PROPANE",
      "NC3H8",
      "n-C3H8"
    ]
  },
  "EOS": [
    {
      "p_max": 1000000000,
      "molar_mass_units": "kg/mol",
      "STATES": {
        "hs_anchor": {
          "rhomolar_units": "mol/m^3",
          "T": 406.879,
          "T_units": "K",
          "p": 6.838746441106367e6,
          "rhomolar": 4500.000000000001,
          "hmolar": 29379.952339019725,
          "p_units": "Pa",
          "smolar_units": "J/mol/K",
          "hmolar_units": "J/mol",
          "smolar": 101.69046548058476
        },
        "reducing": {
          "rhomolar_units": "mol/m^3",
          "T": 369.825,
          "T_units": "K",
          "p": 4251200,
          "rhomolar": 5000.043088,
          "hmolar": 24487.802924055468,
          "p_units": "Pa",
          "smolar_units": "J/mol/K",
          "hmolar_units": "J/mol",
          "smolar": 90.47791603911703
        },
        "sat_min_liquid": {
          "rhomolar_units": "mol/m^3",
          "T": 85.525,
          "T_units": "K",
          "p": 0.00017184840809308612,
          "rhomolar": 16625.805559650213,
          "hmolar": -8671.12468936134,
          "p_units": "Pa",
          "smolar_units": "J/mol/K",
          "hmolar_units": "J/mol",
          "smolar": -61.55368255049795
        },
        "sat_min_vapor": {
          "rhomolar_units": "mol/m^3",
          "T": 85.525,
          "T_units": "K",
          "p": 0.00017184840809308612,
          "rhomolar": 2.419453505696157e-7,
          "hmolar": 16150.334927009257,
          "p_units": "Pa",
          "smolar_units": "J/mol/K",
          "hmolar_units": "J/mol",
          "smolar": 228.67092565026863
        }
      },
      "alphar": [
        {
          "l": [
            0,
            0,
            0,
            0,
            0,
            0,
            1,
            1,
            2,
            2,
            3,
            3
          ],
          "n": [
            1.0403973107358,
            -2.8318404081403,
            0.84393809606294,
            -0.076559591850023,
            0.09469737305728,
            0.00024796475497006,
            0.2774376042287,
            -0.043846000648377,
            -0.2699106478435,
            -0.06931341308986,
            -0.029632145981653,
            0.01404012675138
          ],
          "d": [
            1,
            1,
            1,
            2,
            3,
            7,
            2,
            5,
            1,
            4,
            3,
            4
          ],
          "type": "ResidualHelmholtzPower",
          "t": [
            0.25,
            1.125,
            1.5,
            1.375,
            0.25,
            0.875,
            0.625,
            1.75,
            3.625,
            3.625,
            14.5,
            12.0
          ]
        }
      ],
      "gas_constant_units": "J/mol/K",
      "T_max": 650,
      "pseudo_pure": false,
      "molar_mass": 0.044095619999999995,
      "Ttriple_units": "K",
      "T_max_units": "K",
      "acentric": 0.1521,
      "acentric_units": "-",
      "alpha0": [
        {
          "a2": -84.463284382,
          "type": "IdealGasHelmholtzLead",
          "a1": 31.602908195
        },
        {
          "a": 3.02939,
          "type": "IdealGasHelmholtzLogTau"
        },
        {
          "n": [
            6.60569,
            3.197,
            19.1921,
            -8.37267
          ],
          "type": "IdealGasClapeyronJLGerg2008",
          "v": [
            1.297521801,
            0.543210978,
            2.583146083,
            2.777773271
          ]
        },
        {
          "R0": 8.31451,
          "type": "IdealGasClapeyronJLR0",
          "R0_units": "J/mol/K"
        }
      ],
      "p_max_units": "Pa",
      "BibTeX_EOS": "Kunz-JCED-2012",
      "BibTeX_CP0": "Kunz-JCED-2012",
      "Ttriple": 85.525,
      "gas_constant": 8.314472,
      "rhomolar_max": 17309.044175429794,
      "rhomolar_max_units": "mol/m^3"
    }
  ],
  "ANCILLARIES": {
    "pS": {
      "Tmin": 85.52500000000002,
      "description": "p'' = pc*exp(Tc/T*sum(n_i*theta^t_i))",
      "Tmax": 369.8899999999991,
      "n": [
        -23.998635747391152,
        18.31301760523324,
        -0.42240851966839504,
        -2.737829881379896,
        0.257888414168987,
        -1.3113462226130783
      ],
      "max_abserror_percentage": 0.016222893634509905,
      "t": [
        1.05,
        1.084,
        2.259,
        4.287,
        7.66,
        18.584
      ],
      "reducing_value": 4251200,
      "T_r": 369.89,
      "using_tau_r": true,
      "type": "pV"
    },
    "sL": {
      "A": [
        -309.43996740998193,
        3.668573132987482,
        -0.027209697955839388,
        0.00014672536054570167,
        -5.29070080301745e-7,
        1.1918175264093366e-9,
        -1.5161125579265272e-12,
        8.276594148498385e-16
      ],
      "_note": "coefficients are in increasing order; input in K, output in J/mol/K; value is entropy minus hs_anchor entropy",
      "B": [
        1,
        -0.002641596388412306
      ],
      "Tmin": 85.525,
      "Tmax": 369.79,
      "max_abs_error": 0.9528482744550324,
      "type": "rational_polynomial",
      "max_abs_error_units": "J/mol/K"
    },
    "hLV": {
      "A": [
        28027.43347159743,
        -87.51145055515036,
        -0.5641568879088571,
        0.006749038230355905,
        -3.5165597979250975e-5,
        1.0133818422083624e-7,
        -1.5718327954358495e-10,
        1.046837739036196e-13
      ],
      "_note": "coefficients are in increasing order; input in K, output in J/mol; value is enthalpy minus hs_anchor enthalpy",
      "B": [
        1,
        -0.002664434280304393
      ],
      "Tmin": 85.525,
      "Tmax": 369.79,
      "max_abs_error": 623.8773557534162,
      "type": "rational_polynomial",
      "max_abs_error_units": "J/mol"
    },
    "sLV": {
      "A": [
        1194.1009506169073,
        -25.07262348279453,
        0.2661709115257712,
        -0.0016942059075175718,
        6.674878239355979e-6,
        -1.5947777357810867e-8,
        2.1173750424352323e-11,
        -1.1981948985379191e-14
      ],
      "_note": "coefficients are in increasing order; input in K, output in J/mol/K; value is entropy minus hs_anchor entropy",
      "B": [
        1,
        -0.0024616032183303067
      ],
      "Tmin": 85.525,
      "Tmax": 369.79,
      "max_abs_error": 3.2256076895057104,
      "type": "rational_polynomial",
      "max_abs_error_units": "J/mol/K"
    },
    "melting_line": {
      "type": "Simon",
      "parts": [
        {
          "a": 718000000,
          "c": 1.283,
          "T_min": 85.525,
          "T_0": 85.525,
          "T_max": 175,
          "p_0": 0.00017207065534365437
        }
      ],
      "BibTeX": "Reeves-JCP-1964",
      "T_m": 85.39999999999998
    },
    "rhoV": {
      "Tmin": 85.52500000000002,
      "description": "rho'' = rhoc*exp(Tc/T*sum(n_i*theta^t_i))",
      "Tmax": 369.8899999999991,
      "n": [
        -3.401360845132903,
        -1.9443653795380451,
        -0.4101211459709529,
        -15.598374206544216,
        15.844867806184942,
        -15.298907422332048
      ],
      "max_abserror_percentage": 1.171965141592346,
      "t": [
        0.431,
        1.339,
        2.091,
        6.822,
        8.214,
        19.706
      ],
      "reducing_value": 5000.000000000001,
      "T_r": 369.89,
      "using_tau_r": true,
      "type": "rhoV"
    },
    "surface_tension": {
      "a": [
        0.05334,
        -0.01748
      ],
      "n": [
        1.235,
        4.404
      ],
      "BibTeX": "Mulero-JPCRD-2012",
      "Tc": 369.89,
      "description": "sigma = sum(a_i*(1-T/Tc)^n_i)"
    },
    "hL": {
      "A": [
        -44755.04364358029,
        187.3274060247385,
        0.022180693375846047,
        -0.0018945351568552464,
        9.051589894935887e-6,
        -2.538123490519804e-8,
        3.897137274028648e-11,
        -2.6685452818773097e-14
      ],
      "_note": "coefficients are in increasing order; input in K, output in J/mol; value is enthalpy minus hs_anchor enthalpy",
      "B": [
        1,
        -0.0026659217850497135
      ],
      "Tmin": 85.525,
      "Tmax": 369.79,
      "max_abs_error": 280.1843383364994,
      "type": "rational_polynomial",
      "max_abs_error_units": "J/mol"
    },
    "rhoL": {
      "Tmin": 85.52500000000002,
      "description": "rho' = rhoc*(1+sum(n_i*theta^t_i))",
      "Tmax": 369.8899999999991,
      "n": [
        2.104068052280433,
        0.3371892411622086,
        0.4401223810964251,
        -3.5679018989260567,
        59.93889697061387,
        -70.9402469085883
      ],
      "max_abserror_percentage": 0.4218642075006107,
      "t": [
        0.368,
        0.875,
        3.009,
        9.51,
        15.381,
        17.001
      ],
      "reducing_value": 5000.000000000001,
      "T_r": 369.89,
      "using_tau_r": false,
      "type": "rhoLnoexp"
    }
  }
}