{
  "STATES": {
    "triple_liquid": {
      "T": 273.16,
      "T_units": "K",
      "rhomolar_units": "mol/m^3",
      "p": 611.6548008968684,
      "rhomolar": 55496.95513999978,
      "hmolar": 0.011021389918129065,
      "p_units": "Pa",
      "smolar_units": "J/mol/K",
      "hmolar_units": "J/mol",
      "smolar": -6.248886779394275e-11
    },
    "critical": {
      "T": 647.096,
      "T_units": "K",
      "rhomolar_units": "mol/m^3",
      "p": 22064000,
      "rhomolar": 17873.716089999998,
      "hmolar": 37549.461223920865,
      "p_units": "Pa",
      "smolar_units": "J/mol/K",
      "hmolar_units": "J/mol",
      "smolar": 79.3940358438747
    },
    "triple_vapor": {
      "T": 273.16,
      "T_units": "K",
      "rhomolar_units": "mol/m^3",
      "p": 611.6548008968684,
      "rhomolar": 0.2694716052752858,
      "hmolar": 45054.657349954025,
      "p_units": "Pa",
      "smolar_units": "J/mol/K",
      "hmolar_units": "J/mol",
      "smolar": 164.93862020846
    }
  },
  "INFO": {
    "2DPNG_URL": "http://www.chemspider.com/ImagesHandler.ashx?id=937",
    "ALIASES": [
      "water",
      "WATER",
      "H2O",
      "h2o",
      "R718"
    ],
    "CAS": "7732-18-5",
    "CHEMSPIDER_ID": 937,
    "ENVIRONMENTAL": {
      "ASHRAE34": "A1",
      "FH": 0,
      "GWP100": -1,
      "GWP20": -1,
      "GWP500": -1,
      "HH": 0,
      "Name": "Water",
      "ODP": -1,
      "PH": 0
    },
    "FORMULA": "H_{2}O_{1}",
    "INCHI_KEY": "XLYOFNOQVPJJNP-UHFFFAOYSA-N",
    "INCHI_STRING": "InChI=1S/H2O/h1H2",
    "NAME": "Water",
    "REFPROP_NAME": "WATER",
    "SMILES": "O"
  },
  "EOS": [
    {
      "p_max": 1000000000,
      "molar_mass_units": "kg/mol",
      "STATES": {
        "hs_anchor": {
          "T": 711.8056,
          "T_units": "K",
          "rhomolar_units": "mol/m^3",
          "p": 3.839857856983617e7,
          "rhomolar": 16086.355196048155,
          "hmolar": 43781.065905123054,
          "p_units": "Pa",
          "smolar_units": "J/mol/K",
          "hmolar_units": "J/mol",
          "smolar": 87.17706239787964
        },
        "reducing": {
          "T": 647.096,
          "T_units": "K",
          "rhomolar_units": "mol/m^3",
          "p": 22064000,
          "rhomolar": 17873.716089999998,
          "hmolar": 37556.74658424395,
          "p_units": "Pa",
          "smolar_units": "J/mol/K",
          "hmolar_units": "J/mol",
          "smolar": 79.4039479748897
        },
        "sat_min_liquid": {
          "T": 273.16,
          "T_units": "K",
          "rhomolar_units": "mol/m^3",
          "p": 611.6548008968684,
          "rhomolar": 55496.95513999978,
          "hmolar": 0.011021389918129065,
          "p_units": "Pa",
          "smolar_units": "J/mol/K",
          "hmolar_units": "J/mol",
          "smolar": -6.248886779394275e-11
        },
        "sat_min_vapor": {
          "T": 273.16,
          "T_units": "K",
          "rhomolar_units": "mol/m^3",
          "p": 611.6548008968684,
          "rhomolar": 0.2694716052752858,
          "hmolar": 45054.657349954025,
          "p_units": "Pa",
          "smolar_units": "J/mol/K",
          "hmolar_units": "J/mol",
          "smolar": 164.93862020846
        }
      },
      "alphar": [
        {
          "l": [
            0,
            0,
            0,
            0,
            0,
            0,
            0,
            1,
            1,
            1,
            2,
            2,
            2,
            3,
            5,
            5
          ],
          "n": [
            0.82728408749586,
            -1.8602220416584,
            -1.1199009613744,
            0.15635753976056,
            0.87375844859025,
            -0.36674403715731,
            0.053987893432436,
            1.0957690214499,
            0.053213037828563,
            0.013050533930825,
            -0.41079520434476,
            0.1463744334412,
            -0.055726838623719,
            -0.0112017741438,
            -0.0066062758068099,
            0.0046918522004538
          ],
          "d": [
            1,
            1,
            1,
            2,
            2,
            3,
            4,
            1,
            5,
            5,
            1,
            2,
            4,
            4,
            1,
            1
          ],
          "type": "ResidualHelmholtzPower",
          "t": [
            0.5,
            1.25,
            1.875,
            0.125,
            1.5,
            1.0,
            0.75,
            1.5,
            0.625,
            2.625,
            5.0,
            4.0,
            4.5,
            3.0,
            4.0,
            6.0
          ]
        }
      ],
      "gas_constant_units": "J/mol/K",
      "T_max": 2000,
      "pseudo_pure": false,
      "molar_mass": 0.01801528,
      "Ttriple_units": "K",
      "T_max_units": "K",
      "acentric": 0.3442920843,
      "acentric_units": "-",
      "alpha0": [
        {
          "a2": -11.996306443,
          "type": "IdealGasHelmholtzLead",
          "a1": 8.20352069
        },
        {
          "a": 3.00392,
          "type": "IdealGasHelmholtzLogTau"
        },
        {
          "n": [
            0.01059,
            0.98763,
            3.06904,
            0.0
          ],
          "type": "IdealGasClapeyronJLGerg2008",
          "v": [
            0.415386589,
            1.763895929,
            3.874803739,
            0.0
          ]
        },
        {
          "R0": 8.31451,
          "type": "IdealGasClapeyronJLR0",
          "R0_units": "J/mol/K"
        }
      ],
      "p_max_units": "Pa",
      "BibTeX_EOS": "Kunz-JCED-2012",
      "BibTeX_CP0": "Kunz-JCED-2012",
      "Ttriple": 273.16,
      "gas_constant": 8.314472,
      "rhomolar_max": 57726.47047978487,
      "rhomolar_max_units": "mol/m^3"
    }
  ],
  "ANCILLARIES": {
    "hL": {
      "A": [
        -53247.44308046212,
        -30.22449750665165,
        1.4532157100232044,
        -0.006547990434178497,
        1.606798855008239e-5,
        -2.3270750838086155e-8,
        1.852958539648762e-11,
        -6.293141593578115e-15
      ],
      "B": [
        1,
        -0.001530179787464755
      ],
      "Tmax": 646.996,
      "Tmin": 273.16,
      "_note": "coefficients are in increasing order; input in K, output in J/mol; value is enthalpy minus hs_anchor enthalpy",
      "max_abs_error": 474.4787610946123,
      "max_abs_error_units": "J/mol",
      "type": "rational_polynomial"
    },
    "hLV": {
      "A": [
        -2057.1899047043175,
        902.4205693508127,
        -7.581667042020029,
        0.03095158433051191,
        -7.383031072385865e-5,
        1.039036175766884e-7,
        -8.022530152723072e-11,
        2.6364838926800874e-14
      ],
      "B": [
        1,
        -0.0015301193752061207
      ],
      "Tmax": 646.996,
      "Tmin": 273.16,
      "_note": "coefficients are in increasing order; input in K, output in J/mol; value is enthalpy minus hs_anchor enthalpy",
      "max_abs_error": 1089.2491726064823,
      "max_abs_error_units": "J/mol",
      "type": "rational_polynomial"
    },
    "melting_line": {
      "BibTeX": "IAPWS-Melting-2011",
      "T_m": -1,
      "parts": [
        {
          "T_0": 273.16,
          "T_max": 251.165,
          "T_min": 273.16,
          "a": [
            -1.19539337e6,
            -80818.3159,
            -3338.2686
          ],
          "p_0": 611.657,
          "t": [
            3,
            25.75,
            103.75
          ]
        },
        {
          "T_0": 251.165,
          "T_max": 256.164,
          "T_min": 251.165,
          "a": [
            0.299948
          ],
          "p_0": 208566000,
          "t": [
            60
          ]
        },
        {
          "T_0": 256.164,
          "T_max": 273.31,
          "T_min": 256.164,
          "a": [
            1.18721
          ],
          "p_0": 350100000,
          "t": [
            8
          ]
        },
        {
          "T_0": 273.31,
          "T_max": 355,
          "T_min": 273.31,
          "a": [
            1.07476
          ],
          "p_0": 623400000,
          "t": [
            4.6
          ]
        }
      ],
      "type": "polynomial_in_Tr"
    },
    "pS": {
      "T_r": 647.096,
      "Tmax": 647.0959999999985,
      "Tmin": 273.16,
      "description": "p'' = pc*exp(Tc/T*sum(n_i*theta^t_i))",
      "max_abserror_percentage": 0.01384518934277601,
      "n": [
        -9.75639641045262,
        3.3357600887120102,
        -1.10029278432831,
        0.02037617155190105,
        -2.6668589845604367,
        6.676721087238668
      ],
      "reducing_value": 22064000,
      "t": [
        1.018,
        1.206,
        2.327,
        5.753,
        4.215,
        14.951
      ],
      "type": "pV",
      "using_tau_r": true
    },
    "rhoL": {
      "T_r": 647.096,
      "Tmax": 647.0959999999985,
      "Tmin": 273.16,
      "description": "rho' = rhoc*(1+sum(n_i*theta^t_i))",
      "max_abserror_percentage": 0.14434134863475778,
      "n": [
        0.8157021355019343,
        2.0434712177006693,
        -78.58278372496308,
        1026.4273940070307,
        -2290.5642779377695,
        8420.141408210317
      ],
      "reducing_value": 17873.72799560906,
      "t": [
        0.276,
        0.455,
        7.127,
        9.846,
        11.707,
        17.805
      ],
      "type": "rhoLnoexp",
      "using_tau_r": false
    },
    "rhoV": {
      "T_r": 647.096,
      "Tmax": 647.0959999999985,
      "Tmin": 273.16,
      "description": "rho'' = rhoc*exp(Tc/T*sum(n_i*theta^t_i))",
      "max_abserror_percentage": 0.2457203054771817,
      "n": [
        0.9791749335365787,
        -2.6190679042770215,
        -3.9166443712365235,
        -20.313306821636637,
        16.497589490043744,
        -125.36580458432083
      ],
      "reducing_value": 17873.72799560906,
      "t": [
        0.21,
        0.262,
        0.701,
        3.909,
        4.076,
        17.459
      ],
      "type": "rhoV",
      "using_tau_r": true
    },
    "sL": {
      "A": [
        -242.4197506748103,
        1.4366057889555626,
        -0.004420946012064527,
        8.615475040457115e-6,
        -9.468502359436112e-9,
        3.5511711131309356e-12,
        2.6479381633940517e-15,
        -2.266976871252789e-18
      ],
      "B": [
        1,
        -0.0015298379877608935
      ],
      "Tmax": 646.996,
      "Tmin": 273.16,
      "_note": "coefficients are in increasing order; input in K, output in J/mol/K; value is entropy minus hs_anchor entropy",
      "max_abs_error": 0.7438739447558973,
      "max_abs_error_units": "J/mol/K",
      "type": "rational_polynomial"
    },
    "sLV": {
      "A": [
        883.5934780093995,
        -7.59484746628131,
        0.031796317105236845,
        -7.849375186152849e-5,
        1.1639629069683619e-7,
        -9.86932921168071e-11,
        4.08462307096586e-14,
        -4.719057002291732e-18
      ],
      "B": [
        1,
        -0.001529475906688713
      ],
      "Tmax": 646.996,
      "Tmin": 273.16,
      "_note": "coefficients are in increasing order; input in K, output in J/mol/K; value is entropy minus hs_anchor entropy",
      "max_abs_error": 1.7288475128153316,
      "max_abs_error_units": "J/mol/K",
      "type": "rational_polynomial"
    },
    "surface_tension": {
      "BibTeX": "Mulero-JPCRD-2012",
      "Tc": 647.096,
      "a": [
        -0.1306,
        0.2151
      ],
      "description": "sigma = sum(a_i*(1-T/Tc)^n_i)",
      "n": [
        2.471,
        1.233
      ]
    }
  }
}