{
    "ANCILLARIES": {
     "pS": {
      "T_r": 190.564,
      "Tmax": 190.564,
      "Tmin": 0.0,
      "description": "P=Pc*EXP[SUM(Ni*Theta^ti)*Tc/T]",
      "n": [
       -6.036219,
       1.409353,
       -0.4945199,
       -1.443048
      ],
      "reducing_value": 4599200.0,
      "t": [
       1.0,
       1.5,
       2.0,
       4.5
      ],
      "type": "pL",
      "using_tau_r": true
     },
     "rhoL": {
      "T_r": 190.564,
      "Tmax": 190.564,
      "Tmin": 0.0,
      "description": "D=Dc*EXP[SUM(Ni*Theta^ti)]",
      "n": [
       1.9906389,
       -0.7875619699999999,
       0.036976723
      ],
      "reducing_value": 10139.127999999999,
      "t": [
       0.35400000000000004,
       0.5,
       2.5
      ],
      "type": "rhoL",
      "using_tau_r": false
     },
     "rhoV": {
      "T_r": 190.564,
      "Tmax": 190.564,
      "Tmin": 0.0,
      "description": "D=Dc*EXP[SUM(Ni*Theta^ti)]",
      "n": [
       -1.880284,
       -2.8526531,
       -3.000648,
       -5.251169,
       -13.191859,
       -37.553961
      ],
      "reducing_value": 10139.127999999999,
      "t": [
       0.35400000000000004,
       0.8333333333333334,
       1.5,
       2.5,
       4.166666666666667,
       7.833333333333333
      ],
      "type": "rhoV",
      "using_tau_r": false
     }
    },
    "EOS": [
     {
      "BibTeX_CP0": "",
      "BibTeX_EOS": "10.1063/1.555898",
      "STATES": {
       "reducing": {
        "T": 190.564,
        "T_units": "K",
        "hmolar": -99999999999.0,
        "hmolar_units": "J/mol",
        "p": 4599200.0,
        "p_units": "Pa",
        "rhomolar": 10139.127999999999,
        "rhomolar_units": "mol/m^3",
        "smolar": 999999999999999.0,
        "smolar_units": "J/mol/K"
       },
       "sat_min_liquid": {
        "T": 90.6941,
        "T_units": "K",
        "hmolar": -999999999999.0,
        "hmolar_units": "J/mol",
        "p": 11696.0,
        "p_units": "Pa",
        "rhomolar": 1e+16,
        "rhomolar_units": "mol/m^3",
        "smolar": 1e+20,
        "smolar_units": "J/mol/K"
       },
       "sat_min_vapor": {
        "T": 90.6941,
        "T_units": "K",
        "hmolar": 9999999999999.0,
        "hmolar_units": "J/mol",
        "p": 11696.0,
        "p_units": "Pa",
        "rhomolar": 99999999999999.0,
        "rhomolar_units": "mol/m^3",
        "smolar": 1e+19,
        "smolar_units": "J/mol/K"
       }
      },
      "T_max": 625.0,
      "T_max_units": "K",
      "Ttriple": 90.6941,
      "Ttriple_units": "K",
      "acentric": 0.01142,
      "acentric_units": "-",
      "alpha0": [
       {
        "a1": 0.0,
        "a2": 0.0,
        "type": "IdealGasHelmholtzLead"
       },
       {
        "a": -1,
        "type": "IdealGasHelmholtzLogTau"
       },
       {
        "R": 8.31451,
        "T0": 298.15,
        "Tc": 190.564,
        "c": [
         4.0016
        ],
        "t": [
         0.0
        ],
        "type": "IdealGasHelmholtzCP0PolyT"
       },
       {
        "R": 8.31451,
        "T0": 298.15,
        "Tcrit": 190.564,
        "n": [
         0.008449,
         4.6942,
         3.4865,
         1.6572,
         1.4115
        ],
        "type": "IdealGasHelmholtzPlanckEinsteinFunctionT",
        "v": [
         648.0,
         1957.0,
         3895.0,
         5705.0,
         15080.0
        ]
       }
      ],
      "alphar": [
       {
        "d": [
         1.0,
         1.0,
         1.0,
         2.0,
         2.0,
         2.0,
         2.0,
         3.0,
         4.0,
         4.0,
         8.0,
         9.0,
         10.0,
         1.0,
         1.0,
         1.0,
         2.0,
         4.0,
         5.0,
         6.0,
         1.0,
         2.0,
         3.0,
         4.0,
         4.0,
         3.0,
         5.0,
         5.0,
         8.0,
         2.0,
         3.0,
         4.0,
         4.0,
         4.0,
         5.0,
         6.0
        ],
        "l": [
         0.0,
         0.0,
         0.0,
         0.0,
         0.0,
         0.0,
         0.0,
         0.0,
         0.0,
         0.0,
         0.0,
         0.0,
         0.0,
         1.0,
         1.0,
         1.0,
         1.0,
         1.0,
         1.0,
         1.0,
         2.0,
         2.0,
         2.0,
         2.0,
         2.0,
         3.0,
         3.0,
         3.0,
         3.0,
         4.0,
         4.0,
         4.0,
         4.0,
         4.0,
         4.0,
         4.0
        ],
        "n": [
         0.04367901028,
         0.6709236199,
         -1.765577859,
         0.8582330241,
         -1.206513052,
         0.512046722,
         -0.0004000010791,
         -0.01247842423,
         0.03100269701,
         0.001754748522,
         -3.171921605e-06,
         -2.24034684e-06,
         2.947056156e-07,
         0.1830487909,
         0.1511883679,
         -0.4289363877,
         0.06894002446,
         -0.01408313996,
         -0.0306305483,
         -0.02969906708,
         -0.01932040831,
         -0.1105739959,
         0.09952548995,
         0.008548437825,
         -0.06150555662,
         -0.04291792423,
         -0.0181320729,
         0.0344590476,
         -0.00238591945,
         -0.01159094939,
         0.06641693602,
         -0.0237154959,
         -0.03961624905,
         -0.01387292044,
         0.03389489599,
         -0.002927378753
        ],
        "t": [
         -0.5,
         0.5,
         1.0,
         0.5,
         1.0,
         1.5,
         4.5,
         0.0,
         1.0,
         3.0,
         1.0,
         3.0,
         3.0,
         0.0,
         1.0,
         2.0,
         0.0,
         0.0,
         2.0,
         2.0,
         5.0,
         5.0,
         5.0,
         2.0,
         4.0,
         12.0,
         8.0,
         10.0,
         10.0,
         10.0,
         14.0,
         12.0,
         18.0,
         22.0,
         18.0,
         14.0
        ],
        "type": "ResidualHelmholtzPower"
       },
       {
        "beta": [
         200.0,
         250.0,
         250.0,
         250.0
        ],
        "d": [
         2.0,
         0.0,
         0.0,
         0.0
        ],
        "epsilon": [
         1.0,
         1.0,
         1.0,
         1.0
        ],
        "eta": [
         20.0,
         40.0,
         40.0,
         40.0
        ],
        "gamma": [
         1.07,
         1.11,
         1.11,
         1.11
        ],
        "n": [
         9.324799946e-05,
         -6.287171518,
         12.71069467,
         -6.423953466
        ],
        "t": [
         2.0,
         0.0,
         1.0,
         2.0
        ],
        "type": "ResidualHelmholtzGaussian"
       }
      ],
      "gas_constant": 8.31451,
      "gas_constant_units": "J/mol/K",
      "molar_mass": 0.0160428,
      "molar_mass_units": "kg/mol",
      "p_max": 1000000000.0,
      "p_max_units": "Pa",
      "pseudo_pure": false
     }
    ],
    "INFO": {
     "2DPNG_URL": "http://www.chemspider.com/ImagesHandler.ashx?id=-1",
     "ALIASES": [],
     "CAS": "74-82-8",
     "CHEMSPIDER_ID": -1,
     "ENVIRONMENTAL": {
      "ASHRAE34": "A3",
      "FH": 99999999,
      "GWP100": 25.0,
      "GWP20": -99999999999,
      "GWP500": -9999999999,
      "HH": -999999999,
      "Name": "METHANE",
      "ODP": 99999999.0,
      "PH": -999999
     },
     "FORMULA": "CH4",
     "INCHI_KEY": "VNWKTOKETHGBQD-UHFFFAOYSA-N",
     "INCHI_STRING": "InChI=1S/CH4/h1H4",
     "NAME": "METHANE",
     "REFPROP_NAME": "METHANE",
     "SMILES": "?"
    },
    "STATES": {
     "critical": {
      "T": 190.564,
      "T_units": "K",
      "hmolar": -99999999999.0,
      "hmolar_units": "J/mol",
      "p": 4599200.0,
      "p_units": "Pa",
      "rhomolar": 10139.0,
      "rhomolar_units": "mol/m^3",
      "smolar": 999999999999999.0,
      "smolar_units": "J/mol/K"
     },
     "triple_liquid": {
      "T": 90.6941,
      "T_units": "K",
      "hmolar": -999999999999.0,
      "hmolar_units": "J/mol",
      "p": 11696.0,
      "p_units": "Pa",
      "rhomolar": 1e+16,
      "rhomolar_units": "mol/m^3",
      "smolar": 1e+20,
      "smolar_units": "J/mol/K"
     },
     "triple_vapor": {
      "T": 90.6941,
      "T_units": "K",
      "hmolar": 9999999999999.0,
      "hmolar_units": "J/mol",
      "p": 11696.0,
      "p_units": "Pa",
      "rhomolar": 99999999999999.0,
      "rhomolar_units": "mol/m^3",
      "smolar": 1e+19,
      "smolar_units": "J/mol/K"
     }
    }
   }