{
    "ANCILLARIES": {
      "pS": {
        "T_r": 405.56,
        "Tmax": 405.56,
        "Tmin": 0.0,
        "description": "P=Pc*EXP[SUM(Ni*Theta^ti)*Tc/T]",
        "n": [
          -7.3128,
          3.8888,
          -2.9908,
          -2.8636
        ],
        "reducing_value": 11363400.0,
        "t": [
          1.0,
          1.5,
          1.6,
          3.7
        ],
        "type": "pL",
        "using_tau_r": true
      },
      "rhoL": {
        "T_r": 405.56,
        "Tmax": 405.56,
        "Tmin": 0.0,
        "description": "D=Dc*[1+SUM(Ni*Theta^ti)]",
        "n": [
          2.38249608,
          4.83890399,
          -23.77791492,
          55.53214026,
          -46.5324063,
          11.22109339
        ],
        "reducing_value": 13696.0,
        "t": [
          0.3789177,
          1.4700823,
          2.0387097,
          2.5453535,
          2.9571324,
          3.8144504
        ],
        "type": "rhoLnoexp",
        "using_tau_r": false
      },
      "rhoV": {
        "T_r": 405.56,
        "Tmax": 405.56,
        "Tmin": 0.0,
        "description": "D=Dc*EXP[SUM(Ni*Theta^ti)]",
        "n": [
          -0.04129164,
          -3.58853651,
          -7.13191813,
          -19.83026306,
          -50.18298277
        ],
        "reducing_value": 13696.0,
        "t": [
          0.077013,
          0.4469457,
          1.3638531,
          3.4245874,
          7.0071283
        ],
        "type": "rhoV",
        "using_tau_r": false
      },
      "melting_line": {
        "BibTeX": "Gao-JPCRD-2022",
        "T_m": -999,
        "parts": [
          {
            "T_0": 195.49,
            "T_max": 217.35,
            "T_min": 195.49,
            "a": 516613763,
            "c": 4.4,
            "p_0": 6053.39
          },
          {
            "T_0": 217.35,
            "T_max": 1000,
            "T_min": 217.35,
            "a": 1135000000.0,
            "c": 1.51,
            "p_0": 307000000.0
          }
        ],
        "type": "Simon"
      }
    },
    "EOS": [
      {
        "BibTeX_CP0": "",
        "BibTeX_EOS": "XXX-X-XXXX",
        "STATES": {
          "reducing": {
            "T": 405.56,
            "T_units": "K",
            "hmolar": -99999999999,
            "hmolar_units": "J/mol",
            "p": 11363400.0,
            "p_units": "Pa",
            "rhomolar": 13696.0,
            "rhomolar_units": "mol/m^3",
            "smolar": 999999999999999,
            "smolar_units": "J/mol/K"
          },
          "sat_min_liquid": {
            "T": 195.49,
            "T_units": "K",
            "hmolar": -999999999999,
            "hmolar_units": "J/mol",
            "p": 6053.39,
            "p_units": "Pa",
            "rhomolar": 43091.0,
            "rhomolar_units": "mol/m^3",
            "smolar": 99999999999999999999,
            "smolar_units": "J/mol/K"
          },
          "sat_min_vapor": {
            "T": 195.49,
            "T_units": "K",
            "hmolar": 9999999999999,
            "hmolar_units": "J/mol",
            "p": 6053.39,
            "p_units": "Pa",
            "rhomolar": 3.7408,
            "rhomolar_units": "mol/m^3",
            "smolar": 9999999999999999999,
            "smolar_units": "J/mol/K"
          }
        },
        "T_max": 725.0,
        "T_max_units": "K",
        "Ttriple": 195.49,
        "Ttriple_units": "K",
        "acentric": 0.256,
        "acentric_units": "-",
        "rhomolar_max": 53130.0,
        "rhomolar_max_units": "mol/m^3",
        "alpha0": [
          {
            "a1": 0.0,
            "a2": 0.0,
            "type": "IdealGasHelmholtzLead"
          },
          {
            "a": 3.0,
            "type": "IdealGasHelmholtzLogTau"
          },
          {
            "n": [
              -6.59406093943886,
              5.60101151987913
            ],
            "t": [
              0.0,
              1.0
            ],
            "type": "IdealGasHelmholtzPower"
          },
          {
            "n": [
              2.224,
              3.148,
              0.9579
            ],
            "t": [
              4.0585856593352405,
              9.776605187888352,
              17.829667620080876
            ],
            "type": "IdealGasHelmholtzPlanckEinstein"
          }
        ],
        "alphar": [
          {
            "d": [
              4.0,
              1.0,
              1.0,
              2.0,
              3.0,
              3.0,
              2.0,
              3.0
            ],
            "l": [
              0.0,
              0.0,
              0.0,
              0.0,
              0.0,
              2.0,
              2.0,
              1.0
            ],
            "n": [
              0.006132232,
              1.7395866,
              -2.2261792,
              -0.30127553,
              0.08967023,
              -0.076387037,
              -0.84063963,
              -0.27026327
            ],
            "t": [
              1.0,
              0.382,
              1.0,
              1.0,
              0.677,
              2.915,
              3.51,
              1.063
            ],
            "type": "ResidualHelmholtzPower"
          },
          {
            "beta": [
              1.708,
              1.4865,
              2.0915,
              2.43,
              0.488,
              1.1,
              0.85,
              1.14,
              945.64,
              993.85
            ],
            "d": [
              1.0,
              1.0,
              1.0,
              2.0,
              2.0,
              1.0,
              3.0,
              3.0,
              1.0,
              1.0
            ],
            "epsilon": [
              -0.0726,
              -0.1274,
              0.7527,
              0.57,
              2.2,
              -0.243,
              2.96,
              3.02,
              0.9574,
              0.9576
            ],
            "eta": [
              0.42776,
              0.6424,
              0.8175,
              0.7995,
              0.91,
              0.3574,
              1.21,
              4.14,
              22.56,
              22.68
            ],
            "gamma": [
              1.036,
              1.2777,
              1.083,
              1.2906,
              0.928,
              0.934,
              0.919,
              1.852,
              1.05897,
              1.05277
            ],
            "n": [
              6.212578,
              -5.7844357,
              2.4817542,
              -2.3739168,
              0.01493697,
              -3.7749264,
              0.0006254348,
              -1.7359e-05,
              -0.13462033,
              0.07749072839
            ],
            "t": [
              0.655,
              1.3,
              3.1,
              1.4395,
              1.623,
              0.643,
              1.13,
              4.5,
              1.0,
              4.0
            ],
            "type": "ResidualHelmholtzGaussian"
          },
          {
            "b": [
              1.244,
              0.6826
            ],
            "beta": [
              0.3696,
              0.2962
            ],
            "d": [
              1.0,
              1.0
            ],
            "epsilon": [
              0.4478,
              0.44689
            ],
            "eta": [
              -2.8452,
              -2.8342
            ],
            "gamma": [
              1.108,
              1.313
            ],
            "n": [
              -1.6909858,
              0.93739074
            ],
            "t": [
              4.3315,
              4.015
            ],
            "type": "ResidualHelmholtzGaoB"
          }
        ],
        "gas_constant": 8.314462618,
        "gas_constant_units": "J/mol/K",
        "molar_mass": 0.01703052,
        "molar_mass_units": "kg/mol",
        "p_max": 1000000000.0,
        "p_max_units": "Pa",
        "pseudo_pure": false
      }
    ],
    "INFO": {
      "2DPNG_URL": "http://www.chemspider.com/ImagesHandler.ashx?id=-1",
      "ALIASES": [
        "Ammonia",
        "ammonia",
        "AMMONIA"
      ],
      "CAS": "7664-41-7",
      "CHEMSPIDER_ID": -1,
      "ENVIRONMENTAL": {
        "ASHRAE34": "?",
        "FH": 0,
        "GWP100": 0.0,
        "GWP20": 0.0,
        "GWP500": 0.0,
        "HH": 0,
        "Name": "",
        "ODP": -1e+30,
        "PH": 0
      },
      "FORMULA": "H_{3}N_{1}",
      "INCHI_KEY": "QGZKDVFQNNGYKY-UHFFFAOYSA-N",
      "INCHI_STRING": "InChI=1S/H3N/h1H3",
      "NAME": "ammonia",
      "REFPROP_NAME": "AMMONIA_Aug2022",
      "SMILES": "?"
    },
    "STATES": {
      "critical": {
        "T": 405.56,
        "T_units": "K",
        "hmolar": -99999999999,
        "hmolar_units": "J/mol",
        "p": 11363400.0,
        "p_units": "Pa",
        "rhomolar": 13696.0,
        "rhomolar_units": "mol/m^3",
        "smolar": 999999999999999,
        "smolar_units": "J/mol/K"
      },
      "triple_liquid": {
        "T": 195.49,
        "T_units": "K",
        "hmolar": -999999999999,
        "hmolar_units": "J/mol",
        "p": 6053.39,
        "p_units": "Pa",
        "rhomolar": 43091.0,
        "rhomolar_units": "mol/m^3",
        "smolar": 99999999999999999999,
        "smolar_units": "J/mol/K"
      },
      "triple_vapor": {
        "T": 195.49,
        "T_units": "K",
        "hmolar": 9999999999999,
        "hmolar_units": "J/mol",
        "p": 6053.39,
        "p_units": "Pa",
        "rhomolar": 3.7408,
        "rhomolar_units": "mol/m^3",
        "smolar": 9999999999999999999,
        "smolar_units": "J/mol/K"
      }
    }
  }