{
    "STATES": {
      "triple_liquid": {
        "rhomolar_units": "mol/m^3",
        "T": 134.895,
        "T_units": "K",
        "p": 0.6656582208078881,
        "rhomolar": 12645.062133275149,
        "p_units": "Pa"
      },
      "critical": {
        "rhomolar_units": "mol/m^3",
        "T": 425.125,
        "T_units": "K",
        "p": 3796000,
        "rhomolar": 3920.0167920000004,
        "p_units": "Pa"
      },
      "triple_vapor": {
        "rhomolar_units": "mol/m^3",
        "T": 134.895,
        "T_units": "K",
        "p": 0.6656582208078881,
        "rhomolar": 0.0005935027093652988,
        "p_units": "Pa"
      }
    },
    "INFO": {
      "SMILES": "CCCC",
      "INCHI_KEY": "IJDNQMDRQITEOD-UHFFFAOYSA-N",
      "INCHI_STRING": "InChI=1S/C4H10/c1-3-4-2/h3-4H2,1-2H3",
      "CAS": "106-97-8",
      "NAME": "n-Butane",
      "FORMULA": "C_{4}H_{10}",
      "ALIASES": [
        "nButane",
        "butane",
        "Butane",
        "BUTANE",
        "N-BUTANE",
        "R600",
        "NC4H10",
        "n-C4H10"
      ]
    },
    "EOS": [
      {
        "p_max": 12000000,
        "molar_mass_units": "kg/mol",
        "STATES": {
          "reducing": {
            "rhomolar_units": "mol/m^3",
            "T": 425.125,
            "T_units": "K",
            "p": 3796000,
            "rhomolar": 3920.0167920000004,
            "p_units": "Pa"
          }
        },
        "alpha0": [],
        "alphar": [],
        "gas_constant_units": "J/mol/K",
        "T_max": 575,
        "pseudo_pure": false,
        "molar_mass": 0.0581222,
        "Ttriple_units": "K",
        "T_max_units": "K",
        "acentric": 0.200810094644,
        "acentric_units": "-",
        "p_max_units": "Pa",
        "BibTeX_EOS": "Kunz-JCED-2012",
        "BibTeX_CP0": "Kunz-JCED-2012",
        "Ttriple": 134.895,
        "gas_constant": 8.314472,
        "rhomolar_max": 12856.656554040397,
        "rhomolar_max_units": "mol/m^3"
      }
    ],
    "ANCILLARIES": {
      "pS": {
        "Tmin": 134.895,
        "description": "p'' = pc*exp(Tc/T*sum(n_i*theta^t_i))",
        "Tmax": 425.124999999999,
        "n": [],
        "max_abserror_percentage": 0.02366371569104686,
        "t": [],
        "reducing_value": 3796000,
        "T_r": 425.125,
        "using_tau_r": true,
        "type": "pV"
      },
      "rhoV": {
        "Tmin": 134.895,
        "description": "rho'' = rhoc*exp(Tc/T*sum(n_i*theta^t_i))",
        "Tmax": 425.124999999999,
        "n": [],
        "max_abserror_percentage": 1.1838723681035446,
        "t": [],
        "reducing_value": 3922.7696129878086,
        "T_r": 425.125,
        "using_tau_r": true,
        "type": "rhoV"
      },
      "rhoL": {
        "Tmin": 134.895,
        "description": "rho' = rhoc*(1+sum(n_i*theta^t_i))",
        "Tmax": 425.124999999999,
        "n": [],
        "max_abserror_percentage": 0.21170510433432543,
        "t": [],
        "reducing_value": 3922.7696129878086,
        "T_r": 425.125,
        "using_tau_r": false,
        "type": "rhoLnoexp"
      }
    }
  }